 Q-Chem 6.0 (devel), Q-Chem, Inc., Pleasanton, CA (2022)
 Q-Chem 6.0.1 for Intel X86 EM64T Linux

User input:
--------------------------------------------------------------
$molecule
read opt.txt
$end

$rem
jobtype               freq
exchange              b3lyp
correlation           none
basis                 6-31G
scf_convergence       8
max_scf_cycles        5000
mem_static            8000
mem_total             80000
iqmol_fchk            true
$end
--------------------------------------------------------------

             Standard Nuclear Orientation (Angstroms)
    I     Atom           X                Y                Z
 ----------------------------------------------------------------
    1      C       3.4250443907    -0.9336751641    -0.1129221820
    2      C       3.5229072072     0.4490034452     0.0543188856
    3      C      -3.5229072073    -0.4490034449    -0.0543188823
    4      C      -3.4250443926     0.9336751634     0.1129221853
    5      C       0.6963880073     0.3696025948    -3.4632166053
    6      C      -0.6963683089     0.4667577890    -3.4514692453
    7      C       0.6963683115    -0.4667577868     3.4514692460
    8      C      -0.6963880078    -0.3696025932     3.4632166061
    9      C      -0.2440989519    -3.3650127346    -1.1101962352
   10      C      -0.2441028948    -3.5326658944     0.2758915559
   11      C       0.2441028951     3.5326658943    -0.2758915545
   12      C       0.2440989519     3.3650127346     1.1101962352
   13      C       2.9254114844    -1.4809411303    -1.3639150970
   14      C       2.9254048421    -1.7634209337     0.9715125096
   15      C       3.1251666422     1.3413482116    -1.0225467550
   16      C       3.1251599942     1.0588684081     1.3128808520
   17      C      -3.1251599938    -1.0588684091    -1.3128808506
   18      C      -3.1251666422    -1.3413482086     1.0225467556
   19      C      -2.9254048421     1.7634209337    -0.9715125096
   20      C      -2.9254114856     1.4809411335     1.3639150959
   21      C       1.3389934858    -0.8998282581    -3.1636828737
   22      C       1.5038831620     1.4298555960    -2.8818973361
   23      C      -1.5038660067    -0.7015174907    -3.1397044531
   24      C      -1.3389763416     1.6281663629    -2.8579189132
   25      C       1.3389763421    -1.6281663618     2.8579189142
   26      C       1.5038660067     0.7015174907     3.1397044531
   27      C      -1.5038831601    -1.4298555937     2.8818973380
   28      C      -1.3389934887     0.8998282550     3.1636828735
   29      C       0.9607622999    -2.9141395970    -1.7877944543
   30      C      -1.3859011376    -2.7504422297    -1.7680012456
   31      C       0.9607542509    -3.2563490457     1.0414533342
   32      C      -1.3859091903    -3.0926516745     1.0612465388
   33      C       1.3859091895     3.0926516754    -1.0612465408
   34      C      -0.9607542525     3.2563490462    -1.0414533336
   35      C       1.3859011370     2.7504422284     1.7680012422
   36      C      -0.9607622999     2.9141395970     1.7877944543
   37      C       2.5438330688    -0.6241759178    -2.3980111493
   38      C       2.5438200399    -1.1779123632     2.1800554817
   39      C       2.6457583603     0.8159003586    -2.2238275798
   40      C       2.6457453252     0.2621639173     2.3542390582
   41      C      -2.6457453252    -0.2621639173    -2.3542390582
   42      C      -2.6457583618    -0.8159003569     2.2238275786
   43      C      -2.5438200379     1.1779123674    -2.1800554806
   44      C      -2.5438330670     0.6241759167     2.3980111536
   45      C       0.5636793780    -2.0216496656    -2.8646706834
   46      C       0.8869074921     2.5451573412    -2.3122952321
   47      C      -0.8868927786    -1.9204613838    -2.8524356650
   48      C      -0.5636646767     2.6463456301    -2.3000602127
   49      C       0.5636646773    -2.6463456302     2.3000602121
   50      C       0.8868927786     1.9204613838     2.8524356650
   51      C      -0.8869074891    -2.5451573417     2.3122952314
   52      C      -0.5636793780     2.0216496656     2.8646706834
   53      C       2.1177235054    -2.6491530285    -1.0527936476
   54      C      -2.4823680987    -2.3282621523    -1.0139936366
   55      C       2.1177193991    -2.8237657719     0.3908331307
   56      C      -2.4823722097    -2.5028748910     0.4296331380
   57      C       2.4823722120     2.5028748908    -0.4296331385
   58      C      -2.1177194037     2.8237657727    -0.3908331297
   59      C       2.4823680997     2.3282621524     1.0139936337
   60      C      -2.1177235084     2.6491530298     1.0527936438
 ----------------------------------------------------------------

   11   -2285.5879158496      8.13e-09  Convergence criterion met
 Total energy in the final basis set =    -2285.5879158496

             Orbital Energies (a.u.) and Symmetries
 --------------------------------------------------------------

 Alpha MOs, Restricted
 -- Occupied --
-10.237 -10.237 -10.237 -10.237 -10.237 -10.237 -10.237 -10.237
  1 Ag    1 Au    2 Au    3 Au    2 Ag    3 Ag    4 Ag    5 Ag
-10.237 -10.237 -10.237 -10.237 -10.237 -10.237 -10.237 -10.237
  6 Ag    4 Au    5 Au    6 Au    7 Au    8 Au    9 Au   10 Au
-10.237 -10.237 -10.237 -10.237 -10.237 -10.237 -10.237 -10.237
  7 Ag    8 Ag    9 Ag   10 Ag   11 Ag   11 Au   12 Ag   13 Ag
-10.237 -10.237 -10.237 -10.237 -10.237 -10.236 -10.236 -10.236
 12 Au   13 Au   14 Ag   14 Au   15 Ag   15 Au   16 Ag   17 Ag
-10.236 -10.236 -10.236 -10.236 -10.236 -10.236 -10.236 -10.236
 16 Au   18 Ag   17 Au   18 Au   19 Ag   20 Ag   19 Au   21 Ag
-10.236 -10.236 -10.236 -10.236 -10.236 -10.236 -10.236 -10.236
 20 Au   21 Au   22 Au   22 Ag   23 Ag   23 Au   24 Au   25 Au
-10.236 -10.236 -10.236 -10.236 -10.236 -10.236 -10.236 -10.236
 26 Au   24 Ag   25 Ag   26 Ag   27 Ag   28 Ag   27 Au   28 Au
-10.236 -10.236 -10.236 -10.236  -0.984  -0.964  -0.964  -0.964
 29 Ag   30 Ag   29 Au   30 Au   31 Ag   31 Au   32 Au   33 Au
 -0.926  -0.926  -0.926  -0.926  -0.926  -0.886  -0.886  -0.886
 32 Ag   33 Ag   34 Ag   35 Ag   36 Ag   34 Au   35 Au   36 Au
 -0.853  -0.853  -0.853  -0.853  -0.803  -0.803  -0.803  -0.803
 37 Au   38 Au   39 Au   40 Au   37 Ag   38 Ag   39 Ag   40 Ag
 -0.803  -0.786  -0.786  -0.786  -0.786  -0.729  -0.729  -0.729
 41 Ag   42 Ag   43 Ag   44 Ag   45 Ag   41 Au   42 Au   43 Au
 -0.729  -0.729  -0.715  -0.715  -0.715  -0.673  -0.673  -0.673
 44 Au   45 Au   46 Au   47 Au   48 Au   49 Au   50 Au   51 Au
 -0.636  -0.636  -0.636  -0.636  -0.636  -0.632  -0.632  -0.632
 46 Ag   47 Ag   48 Ag   49 Ag   50 Ag   51 Ag   52 Ag   53 Ag
 -0.607  -0.565  -0.565  -0.565  -0.565  -0.541  -0.541  -0.541
 54 Ag   55 Ag   56 Ag   57 Ag   58 Ag   52 Au   53 Au   54 Au
 -0.541  -0.541  -0.526  -0.526  -0.526  -0.500  -0.500  -0.500
 55 Au   56 Au   57 Au   58 Au   59 Au   60 Au   61 Au   62 Au
 -0.488  -0.475  -0.475  -0.475  -0.475  -0.465  -0.465  -0.465
 59 Ag   63 Au   64 Au   65 Au   66 Au   67 Au   68 Au   69 Au
 -0.457  -0.457  -0.457  -0.457  -0.457  -0.442  -0.442  -0.442
 60 Ag   61 Ag   62 Ag   63 Ag   64 Ag   65 Ag   66 Ag   67 Ag
 -0.442  -0.431  -0.431  -0.431  -0.420  -0.420  -0.420  -0.420
 68 Ag   69 Ag   70 Ag   71 Ag   72 Ag   73 Ag   74 Ag   75 Ag
 -0.420  -0.413  -0.413  -0.413  -0.413  -0.369  -0.369  -0.369
 76 Ag   70 Au   71 Au   72 Au   73 Au   77 Ag   78 Ag   79 Ag
 -0.369  -0.369  -0.365  -0.365  -0.365  -0.358  -0.358  -0.358
 80 Ag   81 Ag   74 Au   75 Au   76 Au   77 Au   78 Au   79 Au
 -0.358  -0.358  -0.346  -0.346  -0.346  -0.346  -0.278  -0.278
 80 Au   81 Au   82 Au   83 Au   84 Au   85 Au   82 Ag   83 Ag
 -0.278  -0.278  -0.278  -0.278  -0.277  -0.277  -0.277  -0.229
 84 Ag   85 Ag   86 Ag   87 Ag   88 Ag   89 Ag   90 Ag   86 Au
 -0.229  -0.229  -0.229  -0.229
 87 Au   88 Au   89 Au   90 Au

 Beta MOs, Restricted
 -- Occupied --
-10.237 -10.237 -10.237 -10.237 -10.237 -10.237 -10.237 -10.237
  1 Ag    1 Au    2 Au    3 Au    2 Ag    3 Ag    4 Ag    5 Ag
-10.237 -10.237 -10.237 -10.237 -10.237 -10.237 -10.237 -10.237
  6 Ag    4 Au    5 Au    6 Au    7 Au    8 Au    9 Au   10 Au
-10.237 -10.237 -10.237 -10.237 -10.237 -10.237 -10.237 -10.237
  7 Ag    8 Ag    9 Ag   10 Ag   11 Ag   11 Au   12 Ag   13 Ag
-10.237 -10.237 -10.237 -10.237 -10.237 -10.236 -10.236 -10.236
 12 Au   13 Au   14 Ag   14 Au   15 Ag   15 Au   16 Ag   17 Ag
-10.236 -10.236 -10.236 -10.236 -10.236 -10.236 -10.236 -10.236
 16 Au   18 Ag   17 Au   18 Au   19 Ag   20 Ag   19 Au   21 Ag
-10.236 -10.236 -10.236 -10.236 -10.236 -10.236 -10.236 -10.236
 20 Au   21 Au   22 Au   22 Ag   23 Ag   23 Au   24 Au   25 Au
-10.236 -10.236 -10.236 -10.236 -10.236 -10.236 -10.236 -10.236
 26 Au   24 Ag   25 Ag   26 Ag   27 Ag   28 Ag   27 Au   28 Au
-10.236 -10.236 -10.236 -10.236  -0.984  -0.964  -0.964  -0.964
 29 Ag   30 Ag   29 Au   30 Au   31 Ag   31 Au   32 Au   33 Au
 -0.926  -0.926  -0.926  -0.926  -0.926  -0.886  -0.886  -0.886
 32 Ag   33 Ag   34 Ag   35 Ag   36 Ag   34 Au   35 Au   36 Au
 -0.853  -0.853  -0.853  -0.853  -0.803  -0.803  -0.803  -0.803
 37 Au   38 Au   39 Au   40 Au   37 Ag   38 Ag   39 Ag   40 Ag
 -0.803  -0.786  -0.786  -0.786  -0.786  -0.729  -0.729  -0.729
 41 Ag   42 Ag   43 Ag   44 Ag   45 Ag   41 Au   42 Au   43 Au
 -0.729  -0.729  -0.715  -0.715  -0.715  -0.673  -0.673  -0.673
 44 Au   45 Au   46 Au   47 Au   48 Au   49 Au   50 Au   51 Au
 -0.636  -0.636  -0.636  -0.636  -0.636  -0.632  -0.632  -0.632
 46 Ag   47 Ag   48 Ag   49 Ag   50 Ag   51 Ag   52 Ag   53 Ag
 -0.607  -0.565  -0.565  -0.565  -0.565  -0.541  -0.541  -0.541
 54 Ag   55 Ag   56 Ag   57 Ag   58 Ag   52 Au   53 Au   54 Au
 -0.541  -0.541  -0.526  -0.526  -0.526  -0.500  -0.500  -0.500
 55 Au   56 Au   57 Au   58 Au   59 Au   60 Au   61 Au   62 Au
 -0.488  -0.475  -0.475  -0.475  -0.475  -0.465  -0.465  -0.465
 59 Ag   63 Au   64 Au   65 Au   66 Au   67 Au   68 Au   69 Au
 -0.457  -0.457  -0.457  -0.457  -0.457  -0.442  -0.442  -0.442
 60 Ag   61 Ag   62 Ag   63 Ag   64 Ag   65 Ag   66 Ag   67 Ag
 -0.442  -0.431  -0.431  -0.431  -0.420  -0.420  -0.420  -0.420
 68 Ag   69 Ag   70 Ag   71 Ag   72 Ag   73 Ag   74 Ag   75 Ag
 -0.420  -0.413  -0.413  -0.413  -0.413  -0.369  -0.369  -0.369
 76 Ag   70 Au   71 Au   72 Au   73 Au   77 Ag   78 Ag   79 Ag
 -0.369  -0.369  -0.365  -0.365  -0.365  -0.358  -0.358  -0.358
 80 Ag   81 Ag   74 Au   75 Au   76 Au   77 Au   78 Au   79 Au
 -0.358  -0.358  -0.346  -0.346  -0.346  -0.346  -0.278  -0.278
 80 Au   81 Au   82 Au   83 Au   84 Au   85 Au   82 Ag   83 Ag
 -0.278  -0.278  -0.278  -0.278  -0.277  -0.277  -0.277  -0.229
 84 Ag   85 Ag   86 Ag   87 Ag   88 Ag   89 Ag   90 Ag   86 Au
 -0.229  -0.229  -0.229  -0.229
 87 Au   88 Au   89 Au   90 Au

          Ground-State Mulliken Net Atomic Charges

     Atom                 Charge (a.u.)
  ----------------------------------------
      1 C                     0.000263
      2 C                     0.000197
      3 C                     0.000197
      4 C                     0.000263
      5 C                     0.000324
      6 C                     0.000161
      7 C                     0.000161
      8 C                     0.000324
      9 C                     0.000184
     10 C                     0.000516
     11 C                     0.000516
     12 C                     0.000184
     13 C                     0.000161
     14 C                    -0.000563
     15 C                    -0.000160
     16 C                    -0.000355
     17 C                    -0.000355
     18 C                    -0.000160
     19 C                    -0.000563
     20 C                     0.000161
     21 C                    -0.000385
     22 C                    -0.000253
     23 C                     0.000123
     24 C                     0.000108
     25 C                     0.000108
     26 C                     0.000123
     27 C                    -0.000254
     28 C                    -0.000384
     29 C                    -0.000029
     30 C                    -0.000065
     31 C                     0.000074
     32 C                    -0.000124
     33 C                    -0.000124
     34 C                     0.000074
     35 C                    -0.000065
     36 C                    -0.000029
     37 C                    -0.000128
     38 C                     0.000100
     39 C                     0.000338
     40 C                     0.000156
     41 C                     0.000156
     42 C                     0.000338
     43 C                     0.000100
     44 C                    -0.000128
     45 C                     0.000232
     46 C                    -0.000330
     47 C                    -0.000279
     48 C                    -0.000163
     49 C                    -0.000163
     50 C                    -0.000279
     51 C                    -0.000330
     52 C                     0.000232
     53 C                    -0.000467
     54 C                     0.000198
     55 C                     0.000405
     56 C                    -0.000239
     57 C                    -0.000239
     58 C                     0.000405
     59 C                     0.000198
     60 C                    -0.000467
  ----------------------------------------
  Sum of atomic charges =     0.000000

                    Cartesian Multipole Moments
 -----------------------------------------------------------------
    Charge (ESU x 10^10)
                 0.0000
    Dipole Moment (Debye)
         X      -0.0000      Y      -0.0000      Z      -0.0000
       Tot       0.0000
    Quadrupole Moments (Debye-Ang)
        XX    -331.3495     XY      -0.0015     YY    -331.3435
        XZ       0.0050     YZ       0.0001     ZZ    -331.3416

 Frequency:       271.25                 271.72                 272.15
 Force Cnst:      0.5202                 0.5220                 0.5237
 Red. Mass:      12.0000                12.0000                12.0000
 IR Intens:        0.000                  0.000                  0.000
 Frequency:       273.02                 273.18                 352.99
 Force Cnst:      0.5270                 0.5276                 0.8810
 Red. Mass:      12.0000                12.0000                12.0000
 IR Intens:        0.000                  0.000                  0.000
 Frequency:       353.91                 356.25                 362.40
 Force Cnst:      0.8856                 0.8973                 0.9285
 Red. Mass:      12.0000                12.0000                12.0000
 IR Intens:        0.002                  0.002                  0.000
 Frequency:       363.40                 363.88                 366.24
 Force Cnst:      0.9337                 0.9362                 0.9483
 Red. Mass:      12.0000                12.0000                12.0000
 IR Intens:        0.000                  0.001                  0.002
 Frequency:       418.46                 418.70                 419.10
 Force Cnst:      1.2380                 1.2395                 1.2418
 Red. Mass:      12.0000                12.0000                12.0000
 IR Intens:        0.001                  0.000                  0.001
 Frequency:       419.35                 419.73                 445.89
 Force Cnst:      1.2433                 1.2456                 1.4057
 Red. Mass:      12.0000                12.0000                12.0000
 IR Intens:        0.000                  0.001                  0.000
 Frequency:       447.00                 448.57                 449.20
 Force Cnst:      1.4127                 1.4226                 1.4266
 Red. Mass:      12.0000                12.0000                12.0000
 IR Intens:        0.000                  0.000                  0.000
 Frequency:       450.47                 498.26                 498.60
 Force Cnst:      1.4347                 1.7553                 1.7577
 Red. Mass:      12.0000                12.0000                12.0000
 IR Intens:        0.000                  0.000                  0.000
 Frequency:       499.55                 499.76                 501.39
 Force Cnst:      1.7644                 1.7659                 1.7774
 Red. Mass:      12.0000                12.0000                12.0000
 IR Intens:        0.000                  0.000                  0.000
 Frequency:       551.26                 552.72                 553.21
 Force Cnst:      2.1485                 2.1599                 2.1638
 Red. Mass:      12.0000                12.0000                12.0000
 IR Intens:       19.798                  7.336                  3.123
 Frequency:       554.10                 554.47                 554.91
 Force Cnst:      2.1707                 2.1737                 2.1771
 Red. Mass:      12.0000                12.0000                12.0000
 IR Intens:        2.288                  9.957                  5.459
 Frequency:       555.75                 557.04                 580.88
 Force Cnst:      2.1837                 2.1938                 2.3856
 Red. Mass:      12.0000                12.0000                12.0000
 IR Intens:        6.935                 22.698                  0.000
 Frequency:       582.71                 583.52                 592.03
 Force Cnst:      2.4007                 2.4074                 2.4781
 Red. Mass:      12.0000                12.0000                12.0000
 IR Intens:        0.000                  0.000                  9.560
 Frequency:       592.25                 592.73                 592.98
 Force Cnst:      2.4799                 2.4839                 2.4860
 Red. Mass:      12.0000                12.0000                12.0000
 IR Intens:        0.000                 10.118                 10.636
 Frequency:       594.00                 594.08                 595.18
 Force Cnst:      2.4947                 2.4953                 2.5046
 Red. Mass:      12.0000                12.0000                12.0000
 IR Intens:        0.000                  0.000                  0.000
 Frequency:       596.13                 596.69                 597.28
 Force Cnst:      2.5126                 2.5173                 2.5223
 Red. Mass:      12.0000                12.0000                12.0000
 IR Intens:        0.000                  0.000                  0.000
 Frequency:       695.97                 696.73                 698.12
 Force Cnst:      3.4247                 3.4321                 3.4458
 Red. Mass:      12.0000                12.0000                12.0000
 IR Intens:        0.001                  0.001                  0.001
 Frequency:       698.28                 699.27                 734.05
 Force Cnst:      3.4474                 3.4572                 3.8096
 Red. Mass:      12.0000                12.0000                12.0000
 IR Intens:        0.002                  0.003                  0.000
 Frequency:       734.77                 736.79                 739.19
 Force Cnst:      3.8171                 3.8381                 3.8632
 Red. Mass:      12.0000                12.0000                12.0000
 IR Intens:        0.000                  0.000                  0.000
 Frequency:       739.82                 739.91                 740.81
 Force Cnst:      3.8698                 3.8707                 3.8801
 Red. Mass:      12.0000                12.0000                12.0000
 IR Intens:        0.002                  0.000                  0.001
 Frequency:       743.21                 761.17                 762.82
 Force Cnst:      3.9053                 4.0963                 4.1141
 Red. Mass:      12.0000                12.0000                12.0000
 IR Intens:        0.001                  0.000                  0.001
 Frequency:       763.61                 763.71                 764.10
 Force Cnst:      4.1226                 4.1237                 4.1279
 Red. Mass:      12.0000                12.0000                12.0000
 IR Intens:        0.001                  0.000                  0.000
 Frequency:       764.72                 765.75                 766.01
 Force Cnst:      4.1347                 4.1458                 4.1486
 Red. Mass:      12.0000                12.0000                12.0000
 IR Intens:        0.004                  0.003                  0.000
 Frequency:       775.06                 775.28                 775.52
 Force Cnst:      4.2472                 4.2496                 4.2522
 Red. Mass:      12.0000                12.0000                12.0000
 IR Intens:        0.000                  0.007                  0.003
 Frequency:       775.65                 777.00                 777.44
 Force Cnst:      4.2536                 4.2685                 4.2733
 Red. Mass:      12.0000                12.0000                12.0000
 IR Intens:        0.000                  0.001                  0.000
 Frequency:       777.80                 779.07                 789.49
 Force Cnst:      4.2773                 4.2913                 4.4068
 Red. Mass:      12.0000                12.0000                12.0000
 IR Intens:        0.004                  0.000                  0.000
 Frequency:       789.73                 789.99                 791.36
 Force Cnst:      4.4095                 4.4124                 4.4277
 Red. Mass:      12.0000                12.0000                12.0000
 IR Intens:        0.003                  0.001                  0.001
 Frequency:       794.84                 795.61                 796.17
 Force Cnst:      4.4667                 4.4754                 4.4817
 Red. Mass:      12.0000                12.0000                12.0000
 IR Intens:        0.000                  0.000                  0.000
 Frequency:       796.81                 797.03                 831.61
 Force Cnst:      4.4889                 4.4914                 4.8896
 Red. Mass:      12.0000                12.0000                12.0000
 IR Intens:        0.000                  0.000                  0.000
 Frequency:       832.25                 833.54                 859.78
 Force Cnst:      4.8971                 4.9123                 5.2265
 Red. Mass:      12.0000                12.0000                12.0000
 IR Intens:        0.000                  0.000                  0.000
 Frequency:       861.08                 863.00                 993.32
 Force Cnst:      5.2423                 5.2657                 6.9760
 Red. Mass:      12.0000                12.0000                12.0000
 IR Intens:        0.000                  0.000                  0.000
 Frequency:       994.60                 994.87                 995.26
 Force Cnst:      6.9940                 6.9979                 7.0034
 Red. Mass:      12.0000                12.0000                12.0000
 IR Intens:        0.000                  0.000                  0.000
 Frequency:       995.79                 997.00                 997.30
 Force Cnst:      7.0108                 7.0279                 7.0321
 Red. Mass:      12.0000                12.0000                12.0000
 IR Intens:        0.000                  0.000                  0.001
 Frequency:       997.61                1114.52                1114.84
 Force Cnst:      7.0364                 8.7822                 8.7874
 Red. Mass:      12.0000                12.0000                12.0000
 IR Intens:        0.001                  0.000                  0.000
 Frequency:      1115.54                1116.15                1140.04
 Force Cnst:      8.7983                 8.8079                 9.1890
 Red. Mass:      12.0000                12.0000                12.0000
 IR Intens:        0.000                  0.000                  0.000
 Frequency:      1140.44                1140.81                1141.86
 Force Cnst:      9.1955                 9.2015                 9.2184
 Red. Mass:      12.0000                12.0000                12.0000
 IR Intens:        0.000                  0.000                  0.000
 Frequency:      1142.76                1218.94                1219.28
 Force Cnst:      9.2330                10.5051                10.5109
 Red. Mass:      12.0000                12.0000                12.0000
 IR Intens:        0.000                  0.007                  0.013
 Frequency:      1219.41                1221.63                1223.88
 Force Cnst:     10.5131                10.5514                10.5904
 Red. Mass:      12.0000                12.0000                12.0000
 IR Intens:        0.013                 10.167                 10.078
 Frequency:      1225.00                1257.54                1258.25
 Force Cnst:     10.6097                11.1808                11.1935
 Red. Mass:      12.0000                12.0000                12.0000
 IR Intens:       10.137                  0.002                  0.004
 Frequency:      1258.63                1259.53                1261.42
 Force Cnst:     11.2002                11.2162                11.2499
 Red. Mass:      12.0000                12.0000                12.0000
 IR Intens:        0.005                  0.005                  0.010
 Frequency:      1288.50                1290.22                1291.73
 Force Cnst:     11.7381                11.7695                11.7970
 Red. Mass:      12.0000                12.0000                12.0000
 IR Intens:        0.000                  0.000                  0.000
 Frequency:      1291.82                1292.23                1316.10
 Force Cnst:     11.7988                11.8063                12.2464
 Red. Mass:      12.0000                12.0000                12.0000
 IR Intens:        0.000                  0.000                  0.000
 Frequency:      1316.56                1317.03                1352.93
 Force Cnst:     12.2550                12.2637                12.9415
 Red. Mass:      12.0000                12.0000                12.0000
 IR Intens:        0.000                  0.000                  0.001
 Frequency:      1353.18                1353.32                1353.94
 Force Cnst:     12.9461                12.9489                12.9607
 Red. Mass:      12.0000                12.0000                12.0000
 IR Intens:        0.000                  0.000                  0.000
 Frequency:      1354.12                1354.55                1354.71
 Force Cnst:     12.9642                12.9724                12.9756
 Red. Mass:      12.0000                12.0000                12.0000
 IR Intens:        0.000                  0.000                  0.000
 Frequency:      1355.69                1385.31                1385.65
 Force Cnst:     12.9943                13.5683                13.5750
 Red. Mass:      12.0000                12.0000                12.0000
 IR Intens:        0.000                  0.001                  0.001
 Frequency:      1385.99                1386.46                1387.39
 Force Cnst:     13.5816                13.5908                13.6090
 Red. Mass:      12.0000                12.0000                12.0000
 IR Intens:        0.000                  0.000                  0.000
 Frequency:      1387.69                1388.56                1388.59
 Force Cnst:     13.6149                13.6321                13.6327
 Red. Mass:      12.0000                12.0000                12.0000
 IR Intens:        0.000                  0.000                  0.000
 Frequency:      1481.63                1482.12                1482.41
 Force Cnst:     15.5208                15.5310                15.5370
 Red. Mass:      12.0000                12.0000                12.0000
 IR Intens:        0.000                  0.000                  0.000
 Frequency:      1483.22                1483.65                1485.33
 Force Cnst:     15.5539                15.5631                15.5982
 Red. Mass:      12.0000                12.0000                12.0000
 IR Intens:        0.000                  0.000                  0.053
 Frequency:      1485.66                1486.11                1486.78
 Force Cnst:     15.6052                15.6148                15.6288
 Red. Mass:      12.0000                12.0000                12.0000
 IR Intens:        0.210                  0.033                  0.072
 Frequency:      1496.14                1496.59                1497.43
 Force Cnst:     15.8261                15.8357                15.8534
 Red. Mass:      12.0000                12.0000                12.0000
 IR Intens:       17.904                 17.838                 18.004
 Frequency:      1541.78                1558.73                1558.98
 Force Cnst:     16.8064                17.1780                17.1836
 Red. Mass:      12.0000                12.0000                12.0000
 IR Intens:        0.000                  0.000                  0.000
 Frequency:      1559.59                1560.73                1590.71
 Force Cnst:     17.1970                17.2221                17.8902
 Red. Mass:      12.0000                12.0000                12.0000
 IR Intens:        0.000                  0.000                  0.001
 Frequency:      1591.26                1592.68                1627.18
 Force Cnst:     17.9024                17.9344                18.7199
 Red. Mass:      12.0000                12.0000                12.0000
 IR Intens:        0.000                  0.000                  0.001
 Frequency:      1629.16                1629.74                1630.08
 Force Cnst:     18.7654                18.7789                18.7866
 Red. Mass:      12.0000                12.0000                12.0000
 IR Intens:        0.001                  0.000                  0.000
 Frequency:      1630.23                1637.89                1638.43
 Force Cnst:     18.7902                18.9671                18.9797
 Red. Mass:      12.0000                12.0000                12.0000
 IR Intens:        0.002                  0.000                  0.000
 Frequency:      1639.46                1639.97                1640.66
 Force Cnst:     19.0034                19.0153                19.0314
 Red. Mass:      12.0000                12.0000                12.0000
 IR Intens:        0.000                  0.000                  0.000

 STANDARD THERMODYNAMIC QUANTITIES AT   298.15 K  AND     1.00 ATM

   This Molecule has  0 Imaginary Frequencies
   Zero point vibrational energy:      239.618 kcal/mol

   Atom    1 Element C  Has Mass   12.00000
   Atom    2 Element C  Has Mass   12.00000
   Atom    3 Element C  Has Mass   12.00000
   Atom    4 Element C  Has Mass   12.00000
   Atom    5 Element C  Has Mass   12.00000
   Atom    6 Element C  Has Mass   12.00000
   Atom    7 Element C  Has Mass   12.00000
   Atom    8 Element C  Has Mass   12.00000
   Atom    9 Element C  Has Mass   12.00000
   Atom   10 Element C  Has Mass   12.00000
   Atom   11 Element C  Has Mass   12.00000
   Atom   12 Element C  Has Mass   12.00000
   Atom   13 Element C  Has Mass   12.00000
   Atom   14 Element C  Has Mass   12.00000
   Atom   15 Element C  Has Mass   12.00000
   Atom   16 Element C  Has Mass   12.00000
   Atom   17 Element C  Has Mass   12.00000
   Atom   18 Element C  Has Mass   12.00000
   Atom   19 Element C  Has Mass   12.00000
   Atom   20 Element C  Has Mass   12.00000
   Atom   21 Element C  Has Mass   12.00000
   Atom   22 Element C  Has Mass   12.00000
   Atom   23 Element C  Has Mass   12.00000
   Atom   24 Element C  Has Mass   12.00000
   Atom   25 Element C  Has Mass   12.00000
   Atom   26 Element C  Has Mass   12.00000
   Atom   27 Element C  Has Mass   12.00000
   Atom   28 Element C  Has Mass   12.00000
   Atom   29 Element C  Has Mass   12.00000
   Atom   30 Element C  Has Mass   12.00000
   Atom   31 Element C  Has Mass   12.00000
   Atom   32 Element C  Has Mass   12.00000
   Atom   33 Element C  Has Mass   12.00000
   Atom   34 Element C  Has Mass   12.00000
   Atom   35 Element C  Has Mass   12.00000
   Atom   36 Element C  Has Mass   12.00000
   Atom   37 Element C  Has Mass   12.00000
   Atom   38 Element C  Has Mass   12.00000
   Atom   39 Element C  Has Mass   12.00000
   Atom   40 Element C  Has Mass   12.00000
   Atom   41 Element C  Has Mass   12.00000
   Atom   42 Element C  Has Mass   12.00000
   Atom   43 Element C  Has Mass   12.00000
   Atom   44 Element C  Has Mass   12.00000
   Atom   45 Element C  Has Mass   12.00000
   Atom   46 Element C  Has Mass   12.00000
   Atom   47 Element C  Has Mass   12.00000
   Atom   48 Element C  Has Mass   12.00000
   Atom   49 Element C  Has Mass   12.00000
   Atom   50 Element C  Has Mass   12.00000
   Atom   51 Element C  Has Mass   12.00000
   Atom   52 Element C  Has Mass   12.00000
   Atom   53 Element C  Has Mass   12.00000
   Atom   54 Element C  Has Mass   12.00000
   Atom   55 Element C  Has Mass   12.00000
   Atom   56 Element C  Has Mass   12.00000
   Atom   57 Element C  Has Mass   12.00000
   Atom   58 Element C  Has Mass   12.00000
   Atom   59 Element C  Has Mass   12.00000
   Atom   60 Element C  Has Mass   12.00000
   Molecular Mass:   720.000000 amu
   Principal axes and moments of inertia in amu*Bohr^2:
                             1           2           3
    Eigenvalues --    21618.60123 21618.60137 21618.60159
          X               0.99999    -0.00506    -0.00030
          Y               0.00506     0.99986    -0.01591
          Z               0.00038     0.01591     0.99987
   Rotational Symmetry Number is   2
   The Molecule is an Asymmetric Top
   Translational Enthalpy:        0.889 kcal/mol
   Rotational Enthalpy:           0.889 kcal/mol
   Vibrational Enthalpy:        250.378 kcal/mol
   gas constant (RT):             0.592 kcal/mol
   Translational Entropy:        45.602  cal/mol.K
   Rotational Entropy:           36.178  cal/mol.K
   Vibrational Entropy:          50.678  cal/mol.K

   Total Enthalpy:              252.748 kcal/mol
   Total Entropy:               132.458  cal/mol.K
 Total job time:  8405.88s(wall), 49990.03s(cpu)
        *  Thank you very much for using Q-Chem.  Have a nice day.  *
